2015 07 01 15 2015 07 01 23
2015 07 07 13 2015 07 07 22
2015 07 09 15 2015 07 10 00
2015 07 12 14 2015 07 12 22
2015 07 14 15 2015 07 15 01
2015 07 17 13 2015 07 17 22
2015 07 19 15 2015 07 20 01
2015 07 22 14 2015 07 22 23
2015 07 24 15 2015 07 25 01
2015 07 27 13 2015 07 27 23
2015 07 29 15 2015 07 30 01
2015 08 01 13 2015 08 01 23
2015 08 03 15 2015 08 04 00
2015 08 07 13 2015 08 07 23
2015 08 12 14 2015 08 12 23
